ITEM: TIMESTEP
0
ITEM: NUMBER OF ATOMS
22458
ITEM: BOX BOUNDS xy xz yz pp pp pp
0.0000000000000000e+00 3.4627499999999998e+02 1.1542499999999998e+02
0.0000000000000000e+00 1.9992196446363764e+02 0.0000000000000000e+00
0.0000000000000000e+00 8.0999999999999996e+00 0.0000000000000000e+00
ITEM: ATOMS id x y z vx vy vz c_pe1 
1 1.7537 1.0125 0 0 0 0 -3.02214 
2 1.7537 1.0125 4.05 0 0 0 -3.02214 
3 2.4949 3.7787 0 0 0 0 -3.41182 
4 2.4949 3.7787 4.05 0 0 0 -3.41182 
5 3.5074 2.025 2.025 0 0 0 -3.3607 
6 3.5074 2.025 6.075 0 0 0 -3.3607 
7 4.2486 4.7912 2.025 0 0 0 -3.36856 
8 4.2486 4.7912 6.075 0 0 0 -3.36856 
9 4.5199 0.271299 0 0 0 0 -2.7328 
10 4.5199 0.271299 4.05 0 0 0 -2.7328 
11 4.98981 7.5574 2.025 0 0 0 -3.36 
12 4.98981 7.5574 6.075 0 0 0 -3.36 
13 5.2611 3.0375 0 0 0 0 -3.36715 
14 5.2611 3.0375 4.05 0 0 0 -3.36715 
15 6.00231 5.8037 0 0 0 0 -3.36016 
16 6.00231 5.8037 4.05 0 0 0 -3.36016 
17 6.2736 1.2838 2.025 0 0 0 -3.2325 
18 6.2736 1.2838 6.075 0 0 0 -3.2325 
19 6.74351 8.5699 0 0 0 0 -3.36 
20 6.74351 8.5699 4.05 0 0 0 -3.36 
21 7.01481 4.05 2.025 0 0 0 -3.38478 
22 7.01481 4.05 6.075 0 0 0 -3.38478 
23 7.48471 11.3361 0 0 0 0 -3.36 
24 7.48471 11.3361 4.05 0 0 0 -3.36 
25 7.75601 6.8162 2.025 0 0 0 -3.36 
26 7.75601 6.8162 6.075 0 0 0 -3.36 
27 8.02731 2.2963 0 0 0 0 -3.31367 
28 8.02731 2.2963 4.05 0 0 0 -3.31367 
29 8.22591 14.1023 0 0 0 0 -3.36 
30 8.22591 14.1023 4.05 0 0 0 -3.36 
31 8.49721 9.5824 2.025 0 0 0 -3.36 
32 8.49721 9.5824 6.075 0 0 0 -3.36 
33 8.76851 5.0625 0 0 0 0 -3.36791 
34 8.76851 5.0625 4.05 0 0 0 -3.36791 
35 9.03981 0.542597 2.025 0 0 0 -3.01159 
36 9.03981 0.542597 6.075 0 0 0 -3.01159 
37 9.23841 12.3486 2.025 0 0 0 -3.36 
38 9.23841 12.3486 6.075 0 0 0 -3.36 
39 9.50971 7.8287 0 0 0 0 -3.36 
40 9.50971 7.8287 4.05 0 0 0 -3.36 
41 9.78101 3.3088 2.025 0 0 0 -3.37975 
42 9.78101 3.3088 6.075 0 0 0 -3.37975 
43 9.97961 15.1148 2.025 0 0 0 -3.36 
44 9.97961 15.1148 6.075 0 0 0 -3.36 
45 10.2509 10.5949 0 0 0 0 -3.36 
46 10.2509 10.5949 4.05 0 0 0 -3.36 
47 10.5222 6.075 2.025 0 0 0 -3.36016 
48 10.5222 6.075 6.075 0 0 0 -3.36016 
49 10.7208 17.881 2.025 0 0 0 -3.36 
50 10.7208 17.881 6.075 0 0 0 -3.36 
51 10.7935 1.5551 0 0 0 0 -3.16593 
52 10.7935 1.5551 4.05 0 0 0 -3.16593 
53 10.9921 13.3611 0 0 0 0 -3.36 
54 10.9921 13.3611 4.05 0 0 0 -3.36 
55 11.2634 8.8412 2.025 0 0 0 -3.36 
56 11.2634 8.8412 6.075 0 0 0 -3.36 
57 11.5347 4.3213 0 0 0 0 -3.39073 
58 11.5347 4.3213 4.05 0 0 0 -3.39073 
59 11.7333 16.1273 0 0 0 0 -3.36 
60 11.7333 16.1273 4.05 0 0 0 -3.36 
61 12.0046 11.6074 2.025 0 0 0 -3.36 
62 12.0046 11.6074 6.075 0 0 0 -3.36 
63 12.2759 7.0875 0 0 0 0 -3.36 
64 12.2759 7.0875 4.05 0 0 0 -3.36 
65 12.4745 18.8935 0 0 0 0 -3.36 
66 12.4745 18.8935 4.05 0 0 0 -3.36 
67 12.5472 2.5676 2.025 0 0 0 -3.31885 
68 12.5472 2.5676 6.075 0 0 0 -3.31885 
69 12.7458 14.3736 2.025 0 0 0 -3.36 
70 12.7458 14.3736 6.075 0 0 0 -3.36 
71 13.0171 9.8537 0 0 0 0 -3.36 
72 13.0171 9.8537 4.05 0 0 0 -3.36 
73 13.2157 21.6597 0 0 0 0 -3.36 
74 13.2157 21.6597 4.05 0 0 0 -3.36 
75 13.2884 5.3338 2.025 0 0 0 -3.36758 
76 13.2884 5.3338 6.075 0 0 0 -3.36758 
77 13.487 17.1398 2.025 0 0 0 -3.36 
78 13.487 17.1398 6.075 0 0 0 -3.36 
79 13.5597 0.813896 0 0 0 0 -3.11568 
80 13.5597 0.813896 4.05 0 0 0 -3.11568 
81 13.7583 12.6199 0 0 0 0 -3.36 
82 13.7583 12.6199 4.05 0 0 0 -3.36 
83 14.0296 8.1 2.025 0 0 0 -3.36 
84 14.0296 8.1 6.075 0 0 0 -3.36 
85 14.2282 19.906 2.025 0 0 0 -3.36 
86 14.2282 19.906 6.075 0 0 0 -3.36 
87 14.3009 3.5801 0 0 0 0 -3.38091 
88 14.3009 3.5801 4.05 0 0 0 -3.38091 
89 14.4995 15.3861 0 0 0 0 -3.36 
90 14.4995 15.3861 4.05 0 0 0 -3.36 
91 14.7708 10.8662 2.025 0 0 0 -3.36 
92 14.7708 10.8662 6.075 0 0 0 -3.36 
93 14.9694 22.6722 2.025 0 0 0 -3.36 
94 14.9694 22.6722 6.075 0 0 0 -3.36 
95 15.0421 6.3463 0 0 0 0 -3.36 
96 15.0421 6.3463 4.05 0 0 0 -3.36 
97 15.2407 18.1523 0 0 0 0 -3.36 
98 15.2407 18.1523 4.05 0 0 0 -3.36 
99 15.3134 1.8264 2.025 0 0 0 -3.35368 
100 15.3134 1.8264 6.075 0 0 0 -3.35368 
101 15.512 13.6324 2.025 0 0 0 -3.36 
102 15.512 13.6324 6.075 0 0 0 -3.36 
103 15.7106 25.4384 2.025 0 0 0 -3.36 
104 15.7106 25.4384 6.075 0 0 0 -3.36 
105 15.7833 9.1125 0 0 0 0 -3.36 
106 15.7833 9.1125 4.05 0 0 0 -3.36 
107 15.9819 20.9185 0 0 0 0 -3.36 
108 15.9819 20.9185 4.05 0 0 0 -3.36 
109 16.0546 4.5926 2.025 0 0 0 -3.36802 
110 16.0546 4.5926 6.075 0 0 0 -3.36802 
111 16.2532 16.3986 2.025 0 0 0 -3.36 
112 16.2532 16.3986 6.075 0 0 0 -3.36 
113 16.3259 0.0726942 0 0 0 0 -2.38788 
114 16.3259 0.0726942 4.05 0 0 0 -2.38788 
115 16.4518 28.2046 2.025 0 0 0 -3.36 
116 16.4518 28.2046 6.075 0 0 0 -3.36 
117 16.5245 11.8787 0 0 0 0 -3.36 
118 16.5245 11.8787 4.05 0 0 0 -3.36 
119 16.7231 23.6847 0 0 0 0 -3.36 
120 16.7231 23.6847 4.05 0 0 0 -3.36 
121 16.7958 7.3588 2.025 0 0 0 -3.36 
122 16.7958 7.3588 6.075 0 0 0 -3.36 
123 16.9944 19.1648 2.025 0 0 0 -3.36 
124 16.9944 19.1648 6.075 0 0 0 -3.36 
125 17.0671 2.8389 0 0 0 0 -3.36356 
126 17.0671 2.8389 4.05 0 0 0 -3.36356 
127 17.2657 14.6449 0 0 0 0 -3.36 
128 17.2657 14.6449 4.05 0 0 0 -3.36 
129 17.4643 26.4509 0 0 0 0 -3.36 
130 17.4643 26.4509 4.05 0 0 0 -3.36 
131 17.537 10.125 2.025 0 0 0 -3.36 
132 17.537 10.125 6.075 0 0 0 -3.36 
133 17.7356 21.931 2.025 0 0 0 -3.36 
134 17.7356 21.931 6.075 0 0 0 -3.36 
135 17.8083 5.6051 0 0 0 0 -3.36016 
136 17.8083 5.6051 4.05 0 0 0 -3.36016 
137 18.0069 17.4111 0 0 0 0 -3.36 
138 18.0069 17.4111 4.05 0 0 0 -3.36 
139 18.0796 1.08519 2.025 0 0 0 -3.24465 
140 18.0796 1.08519 6.075 0 0 0 -3.24465 
141 18.2055 29.2171 0 0 0 0 -3.36 
142 18.2055 29.2171 4.05 0 0 0 -3.36 
143 18.2782 12.8912 2.025 0 0 0 -3.36 
144 18.2782 12.8912 6.075 0 0 0 -3.36 
145 18.4768 24.6972 2.025 0 0 0 -3.36 
146 18.4768 24.6972 6.075 0 0 0 -3.36 
147 18.5495 8.3713 0 0 0 0 -3.36 
148 18.5495 8.3713 4.05 0 0 0 -3.36 
149 18.7481 20.1773 0 0 0 0 -3.36 
150 18.7481 20.1773 4.05 0 0 0 -3.36 
151 18.8208 3.8514 2.025 0 0 0 -3.37774 
152 18.8208 3.8514 6.075 0 0 0 -3.37774 
153 18.9467 31.9833 0 0 0 0 -3.36 
154 18.9467 31.9833 4.05 0 0 0 -3.36 
155 19.0194 15.6574 2.025 0 0 0 -3.36 
156 19.0194 15.6574 6.075 0 0 0 -3.36 
157 19.218 27.4634 2.025 0 0 0 -3.36 
158 19.218 27.4634 6.075 0 0 0 -3.36 
159 19.2907 11.1375 0 0 0 0 -3.36 
160 19.2907 11.1375 4.05 0 0 0 -3.36 
161 19.4893 22.9435 0 0 0 0 -3.36 
162 19.4893 22.9435 4.05 0 0 0 -3.36 
163 19.562 6.6176 2.025 0 0 0 -3.36 
164 19.562 6.6176 6.075 0 0 0 -3.36 
165 19.7606 18.4236 2.025 0 0 0 -3.36 
166 19.7606 18.4236 6.075 0 0 0 -3.36 
167 19.8333 2.09769 0 0 0 0 -3.32687 
168 19.8333 2.09769 4.05 0 0 0 -3.32687 
169 19.9592 30.2296 2.025 0 0 0 -3.36 
170 19.9592 30.2296 6.075 0 0 0 -3.36 
171 20.0319 13.9037 0 0 0 0 -3.36 
172 20.0319 13.9037 4.05 0 0 0 -3.36 
173 20.2305 25.7097 0 0 0 0 -3.36 
174 20.2305 25.7097 4.05 0 0 0 -3.36 
175 20.3032 9.3838 2.025 0 0 0 -3.36 
176 20.3032 9.3838 6.075 0 0 0 -3.36 
177 20.5018 21.1898 2.025 0 0 0 -3.36 
178 20.5018 21.1898 6.075 0 0 0 -3.36 
179 20.5745 4.8639 0 0 0 0 -3.36788 
180 20.5745 4.8639 4.05 0 0 0 -3.36788 
181 20.7004 32.9958 2.025 0 0 0 -3.36 
182 20.7004 32.9958 6.075 0 0 0 -3.36 
183 20.7731 16.6699 0 0 0 0 -3.36 
184 20.7731 16.6699 4.05 0 0 0 -3.36 
185 20.8458 0.343993 2.025 0 0 0 -3.06354 
186 20.8458 0.343993 6.075 0 0 0 -3.06354 
187 20.9717 28.4759 0 0 0 0 -3.36 
188 20.9717 28.4759 4.05 0 0 0 -3.36 
189 21.0444 12.15 2.025 0 0 0 -3.36 
190 21.0444 12.15 6.075 0 0 0 -3.36 
191 21.243 23.956 2.025 0 0 0 -3.36 
192 21.243 23.956 6.075 0 0 0 -3.36 
193 21.3157 7.6301 0 0 0 0 -3.36 
194 21.3157 7.6301 4.05 0 0 0 -3.36 
195 21.4416 35.762 2.025 0 0 0 -3.36 
196 21.4416 35.762 6.075 0 0 0 -3.36 
197 21.5143 19.4361 0 0 0 0 -3.36 
198 21.5143 19.4361 4.05 0 0 0 -3.36 
199 21.587 3.11019 2.025 0 0 0 -3.36938 
200 21.587 3.11019 6.075 0 0 0 -3.36938 
201 21.7129 31.2421 0 0 0 0 -3.36 
202 21.7129 31.2421 4.05 0 0 0 -3.36 
203 21.7856 14.9162 2.025 0 0 0 -3.36 
204 21.7856 14.9162 6.075 0 0 0 -3.36 
205 21.9842 26.7222 2.025 0 0 0 -3.36 
206 21.9842 26.7222 6.075 0 0 0 -3.36 
207 22.0569 10.3963 0 0 0 0 -3.36 
208 22.0569 10.3963 4.05 0 0 0 -3.36 
209 22.2555 22.2023 0 0 0 0 -3.36 
210 22.2555 22.2023 4.05 0 0 0 -3.36 
211 22.3282 5.8764 2.025 0 0 0 -3.36016 
212 22.3282 5.8764 6.075 0 0 0 -3.36016 
213 22.4541 34.0083 0 0 0 0 -3.36 
214 22.4541 34.0083 4.05 0 0 0 -3.36 
215 22.5268 17.6824 2.025 0 0 0 -3.36 
216 22.5268 17.6824 6.075 0 0 0 -3.36 
217 22.5995 1.35649 0 0 0 0 -3.18099 
218 22.5995 1.35649 4.05 0 0 0 -3.18099 
219 22.7254 29.4884 2.025 0 0 0 -3.36 
220 22.7254 29.4884 6.075 0 0 0 -3.36 
221 22.7981 13.1625 0 0 0 0 -3.36 
222 22.7981 13.1625 4.05 0 0 0 -3.36 
223 22.9967 24.9685 0 0 0 0 -3.36 
224 22.9967 24.9685 4.05 0 0 0 -3.36 
225 23.0694 8.6426 2.025 0 0 0 -3.36 
226 23.0694 8.6426 6.075 0 0 0 -3.36 
227 23.1953 36.7745 0 0 0 0 -3.36 
228 23.1953 36.7745 4.05 0 0 0 -3.36 
229 23.268 20.4486 2.025 0 0 0 -3.36 
230 23.268 20.4486 6.075 0 0 0 -3.36 
231 23.3407 4.12269 0 0 0 0 -3.38703 
232 23.3407 4.12269 4.05 0 0 0 -3.38703 
233 23.4666 32.2546 2.025 0 0 0 -3.36 
234 23.4666 32.2546 6.075 0 0 0 -3.36 
235 23.5393 15.9287 0 0 0 0 -3.36 
236 23.5393 15.9287 4.05 0 0 0 -3.36 
237 23.7379 27.7347 0 0 0 0 -3.36 
238 23.7379 27.7347 4.05 0 0 0 -3.36 
239 23.8106 11.4088 2.025 0 0 0 -3.36 
240 23.8106 11.4088 6.075 0 0 0 -3.36 
241 23.9365 39.5407 0 0 0 0 -3.36 
242 23.9365 39.5407 4.05 0 0 0 -3.36 
243 24.0092 23.2148 2.025 0 0 0 -3.36 
244 24.0092 23.2148 6.075 0 0 0 -3.36 
245 24.0819 6.8889 0 0 0 0 -3.36 
246 24.0819 6.8889 4.05 0 0 0 -3.36 
247 24.2078 35.0208 2.025 0 0 0 -3.36 
248 24.2078 35.0208 6.075 0 0 0 -3.36 
249 24.2805 18.6949 0 0 0 0 -3.36 
250 24.2805 18.6949 4.05 0 0 0 -3.36 
251 24.3532 2.36899 2.025 0 0 0 -3.36047 
252 24.3532 2.36899 6.075 0 0 0 -3.36047 
253 24.4791 30.5009 0 0 0 0 -3.36 
254 24.4791 30.5009 4.05 0 0 0 -3.36 
255 24.5518 14.175 2.025 0 0 0 -3.36 
256 24.5518 14.175 6.075 0 0 0 -3.36 
257 24.6777 42.3069 0 0 0 0 -3.36 
258 24.6777 42.3069 4.05 0 0 0 -3.36 
259 24.7504 25.981 2.025 0 0 0 -3.36 
260 24.7504 25.981 6.075 0 0 0 -3.36 
261 24.8231 9.6551 0 0 0 0 -3.36 
262 24.8231 9.6551 4.05 0 0 0 -3.36 
263 24.949 37.787 2.025 0 0 0 -3.36 
264 24.949 37.787 6.075 0 0 0 -3.36 
265 25.0217 21.4611 0 0 0 0 -3.36 
266 25.0217 21.4611 4.05 0 0 0 -3.36 
267 25.0944 5.13519 2.025 0 0 0 -3.36791 
268 25.0944 5.13519 6.075 0 0 0 -3.36791 
269 25.2203 33.2671 0 0 0 0 -3.36 
270 25.2203 33.2671 4.05 0 0 0 -3.36 
271 25.293 16.9412 2.025 0 0 0 -3.36 
272 25.293 16.9412 6.075 0 0 0 -3.36 
273 25.3657 0.615291 0 0 0 0 -3.01321 
274 25.3657 0.615291 4.05 0 0 0 -3.01321 
275 25.4916 28.7472 2.025 0 0 0 -3.36 
276 25.4916 28.7472 6.075 0 0 0 -3.36 
277 25.5643 12.4213 0 0 0 0 -3.36 
278 25.5643 12.4213 4.05 0 0 0 -3.36 
279 25.6902 40.5532 2.025 0 0 0 -3.36 
280 25.6902 40.5532 6.075 0 0 0 -3.36 
281 25.7629 24.2273 0 0 0 0 -3.36 
282 25.7629 24.2273 4.05 0 0 0 -3.36 
283 25.8356 7.9014 2.025 0 0 0 -3.36 
284 25.8356 7.9014 6.075 0 0 0 -3.36 
285 25.9615 36.0333 0 0 0 0 -3.36 
286 25.9615 36.0333 4.05 0 0 0 -3.36 
287 26.0342 19.7074 2.025 0 0 0 -3.36 
288 26.0342 19.7074 6.075 0 0 0 -3.36 
289 26.1069 3.38149 0 0 0 0 -3.37217 
290 26.1069 3.38149 4.05 0 0 0 -3.37217 
291 26.2328 31.5134 2.025 0 0 0 -3.36 
292 26.2328 31.5134 6.075 0 0 0 -3.36 
293 26.3055 15.1875 0 0 0 0 -3.36 
294 26.3055 15.1875 4.05 0 0 0 -3.36 
295 26.4314 43.3194 2.025 0 0 0 -3.36 
296 26.4314 43.3194 6.075 0 0 0 -3.36 
297 26.5041 26.9935 0 0 0 0 -3.36 
298 26.5041 26.9935 4.05 0 0 0 -3.36 
299 26.5768 10.6676 2.025 0 0 0 -3.36 
300 26.5768 10.6676 6.075 0 0 0 -3.36 
301 26.7027 38.7995 0 0 0 0 -3.36 
302 26.7027 38.7995 4.05 0 0 0 -3.36 
303 26.7754 22.4736 2.025 0 0 0 -3.36 
304 26.7754 22.4736 6.075 0 0 0 -3.36 
305 26.8481 6.14769 0 0 0 0 -3.36016 
306 26.8481 6.14769 4.05 0 0 0 -3.36016 
307 26.974 34.2796 2.025 0 0 0 -3.36 
308 26.974 34.2796 6.075 0 0 0 -3.36 
309 27.0467 17.9537 0 0 0 0 -3.36 
310 27.0467 17.9537 4.05 0 0 0 -3.36 
311 27.1194 1.62779 2.025 0 0 0 -3.17037 
312 27.1194 1.62779 6.075 0 0 0 -3.17037 
313 27.1726 46.0856 2.025 0 0 0 -3.36 
314 27.1726 46.0856 6.075 0 0 0 -3.36 
315 27.2453 29.7597 0 0 0 0 -3.36 
316 27.2453 29.7597 4.05 0 0 0 -3.36 
317 27.318 13.4338 2.025 0 0 0 -3.36 
318 27.318 13.4338 6.075 0 0 0 -3.36 
319 27.4439 41.5657 0 0 0 0 -3.36 
320 27.4439 41.5657 4.05 0 0 0 -3.36 
321 27.5166 25.2398 2.025 0 0 0 -3.36 
322 27.5166 25.2398 6.075 0 0 0 -3.36 
323 27.5893 8.9139 0 0 0 0 -3.36 
324 27.5893 8.9139 4.05 0 0 0 -3.36 
325 27.7152 37.0458 2.025 0 0 0 -3.36 
326 27.7152 37.0458 6.075 0 0 0 -3.36 
327 27.7879 20.7199 0 0 0 0 -3.36 
328 27.7879 20.7199 4.05 0 0 0 -3.36 
329 27.8606 4.39399 2.025 0 0 0 -3.39258 
330 27.8606 4.39399 6.075 0 0 0 -3.39258 
331 27.9865 32.5259 0 0 0 0 -3.36 
332 27.9865 32.5259 4.05 0 0 0 -3.36 
333 28.0592 16.2 2.025 0 0 0 -3.36 
334 28.0592 16.2 6.075 0 0 0 -3.36 
335 28.1851 44.3319 0 0 0 0 -3.36 
336 28.1851 44.3319 4.05 0 0 0 -3.36 
337 28.2578 28.006 2.025 0 0 0 -3.36 
338 28.2578 28.006 6.075 0 0 0 -3.36 
339 28.3305 11.6801 0 0 0 0 -3.36 
340 28.3305 11.6801 4.05 0 0 0 -3.36 
341 28.4564 39.812 2.025 0 0 0 -3.36 
342 28.4564 39.812 6.075 0 0 0 -3.36 
343 28.5291 23.4861 0 0 0 0 -3.36 
344 28.5291 23.4861 4.05 0 0 0 -3.36 
345 28.6018 7.16019 2.025 0 0 0 -3.36 
346 28.6018 7.16019 6.075 0 0 0 -3.36 
347 28.7277 35.2921 0 0 0 0 -3.36 
348 28.7277 35.2921 4.05 0 0 0 -3.36 
349 28.8004 18.9662 2.025 0 0 0 -3.36 
350 28.8004 18.9662 6.075 0 0 0 -3.36 
351 28.8731 2.64029 0 0 0 0 -3.28735 
352 28.8731 2.64029 4.05 0 0 0 -3.28735 
353 28.9263 47.0981 0 0 0 0 -3.36 
354 28.9263 47.0981 4.05 0 0 0 -3.36 
355 28.999 30.7722 2.025 0 0 0 -3.36 
356 28.999 30.7722 6.075 0 0 0 -3.36 
357 29.0717 14.4463 0 0 0 0 -3.36 
358 29.0717 14.4463 4.05 0 0 0 -3.36 
359 29.1976 42.5782 2.025 0 0 0 -3.36 
360 29.1976 42.5782 6.075 0 0 0 -3.36 
361 29.2703 26.2523 0 0 0 0 -3.36 
362 29.2703 26.2523 4.05 0 0 0 -3.36 
363 29.343 9.9264 2.025 0 0 0 -3.36 
364 29.343 9.9264 6.075 0 0 0 -3.36 
365 29.4689 38.0583 0 0 0 0 -3.36 
366 29.4689 38.0583 4.05 0 0 0 -3.36 
367 29.5416 21.7324 2.025 0 0 0 -3.36 
368 29.5416 21.7324 6.075 0 0 0 -3.36 
369 29.6143 5.40649 0 0 0 0 -3.36758 
370 29.6143 5.40649 4.05 0 0 0 -3.36758 
371 29.6675 49.8643 0 0 0 0 -3.36 
372 29.6675 49.8643 4.05 0 0 0 -3.36 
373 29.7402 33.5384 2.025 0 0 0 -3.36 
374 29.7402 33.5384 6.075 0 0 0 -3.36 
375 29.8129 17.2125 0 0 0 0 -3.36 
376 29.8129 17.2125 4.05 0 0 0 -3.36 
377 29.8856 0.88659 2.025 0 0 0 -3.05242 
378 29.8856 0.88659 6.075 0 0 0 -3.05242 
379 29.9388 45.3444 2.025 0 0 0 -3.36 
380 29.9388 45.3444 6.075 0 0 0 -3.36 
381 30.0115 29.0185 0 0 0 0 -3.36 
382 30.0115 29.0185 4.05 0 0 0 -3.36 
383 30.0842 12.6926 2.025 0 0 0 -3.36 
384 30.0842 12.6926 6.075 0 0 0 -3.36 
385 30.2101 40.8245 0 0 0 0 -3.36 
386 30.2101 40.8245 4.05 0 0 0 -3.36 
387 30.2828 24.4986 2.025 0 0 0 -3.36 
388 30.2828 24.4986 6.075 0 0 0 -3.36 
389 30.3555 8.17269 0 0 0 0 -3.36 
390 30.3555 8.17269 4.05 0 0 0 -3.36 
391 30.4087 52.6305 0 0 0 0 -3.36 
392 30.4087 52.6305 4.05 0 0 0 -3.36 
393 30.4814 36.3046 2.025 0 0 0 -3.36 
394 30.4814 36.3046 6.075 0 0 0 -3.36 
395 30.5541 19.9787 0 0 0 0 -3.36 
396 30.5541 19.9787 4.05 0 0 0 -3.36 
397 30.6268 3.65279 2.025 0 0 0 -3.39466 
398 30.6268 3.65279 6.075 0 0 0 -3.39466 
399 30.68 48.1106 2.025 0 0 0 -3.36 
400 30.68 48.1106 6.075 0 0 0 -3.36 
401 30.7527 31.7847 0 0 0 0 -3.36 
402 30.7527 31.7847 4.05 0 0 0 -3.36 
403 30.8254 15.4588 2.025 0 0 0 -3.36 
404 30.8254 15.4588 6.075 0 0 0 -3.36 
405 30.9513 43.5907 0 0 0 0 -3.36 
406 30.9513 43.5907 4.05 0 0 0 -3.36 
407 31.024 27.2648 2.025 0 0 0 -3.36 
408 31.024 27.2648 6.075 0 0 0 -3.36 
409 31.0967 10.9389 0 0 0 0 -3.36 
410 31.0967 10.9389 4.05 0 0 0 -3.36 
411 31.2226 39.0708 2.025 0 0 0 -3.36 
412 31.2226 39.0708 6.075 0 0 0 -3.36 
413 31.2953 22.7449 0 0 0 0 -3.36 
414 31.2953 22.7449 4.05 0 0 0 -3.36 
415 31.368 6.41899 2.025 0 0 0 -3.36 
416 31.368 6.41899 6.075 0 0 0 -3.36 
417 31.4212 50.8768 2.025 0 0 0 -3.36 
418 31.4212 50.8768 6.075 0 0 0 -3.36 
419 31.4939 34.5509 0 0 0 0 -3.36 
420 31.4939 34.5509 4.05 0 0 0 -3.36 
421 31.5666 18.225 2.025 0 0 0 -3.36 
422 31.5666 18.225 6.075 0 0 0 -3.36 
423 31.6393 1.89909 0 0 0 0 -3.34635 
424 31.6393 1.89909 4.05 0 0 0 -3.34635 
425 31.6925 46.3569 0 0 0 0 -3.36 
426 31.6925 46.3569 4.05 0 0 0 -3.36 
427 31.7652 30.031 2.025 0 0 0 -3.36 
428 31.7652 30.031 6.075 0 0 0 -3.36 
429 31.8379 13.7051 0 0 0 0 -3.36 
430 31.8379 13.7051 4.05 0 0 0 -3.36 
431 31.9638 41.837 2.025 0 0 0 -3.36 
432 31.9638 41.837 6.075 0 0 0 -3.36 
433 32.0365 25.5111 0 0 0 0 -3.36 
434 32.0365 25.5111 4.05 0 0 0 -3.36 
435 32.1092 9.18519 2.025 0 0 0 -3.36 
436 32.1092 9.18519 6.075 0 0 0 -3.36 
437 32.1624 53.643 2.025 0 0 0 -3.36 
438 32.1624 53.643 6.075 0 0 0 -3.36 
439 32.2351 37.3171 0 0 0 0 -3.36 
440 32.2351 37.3171 4.05 0 0 0 -3.36 
441 32.3078 20.9912 2.025 0 0 0 -3.36 
442 32.3078 20.9912 6.075 0 0 0 -3.36 
443 32.3805 4.66529 0 0 0 0 -3.36769 
444 32.3805 4.66529 4.05 0 0 0 -3.36769 
445 32.4337 49.1231 0 0 0 0 -3.36 
446 32.4337 49.1231 4.05 0 0 0 -3.36 
447 32.5064 32.7972 2.025 0 0 0 -3.36 
448 32.5064 32.7972 6.075 0 0 0 -3.36 
449 32.5791 16.4713 0 0 0 0 -3.36 
450 32.5791 16.4713 4.05 0 0 0 -3.36 
451 32.6518 0.145388 2.025 0 0 0 -3.1239 
452 32.6518 0.145388 6.075 0 0 0 -3.1239 
453 32.705 44.6032 2.025 0 0 0 -3.36 
454 32.705 44.6032 6.075 0 0 0 -3.36 
455 32.7777 28.2773 0 0 0 0 -3.36 
456 32.7777 28.2773 4.05 0 0 0 -3.36 
457 32.8504 11.9514 2.025 0 0 0 -3.36 
458 32.8504 11.9514 6.075 0 0 0 -3.36 
459 32.9036 56.4092 2.025 0 0 0 -3.36 
460 32.9036 56.4092 6.075 0 0 0 -3.36 
461 32.9763 40.0833 0 0 0 0 -3.36 
462 32.9763 40.0833 4.05 0 0 0 -3.36 
463 33.049 23.7574 2.025 0 0 0 -3.36 
464 33.049 23.7574 6.075 0 0 0 -3.36 
465 33.1217 7.43149 0 0 0 0 -3.36 
466 33.1217 7.43149 4.05 0 0 0 -3.36 
467 33.1749 51.8893 0 0 0 0 -3.36 
468 33.1749 51.8893 4.05 0 0 0 -3.36 
469 33.2476 35.5634 2.025 0 0 0 -3.36 
470 33.2476 35.5634 6.075 0 0 0 -3.36 
471 33.3203 19.2375 0 0 0 0 -3.36 
472 33.3203 19.2375 4.05 0 0 0 -3.36 
473 33.393 2.91159 2.025 0 0 0 -3.36559 
474 33.393 2.91159 6.075 0 0 0 -3.36559 
475 33.4462 47.3694 2.025 0 0 0 -3.36 
476 33.4462 47.3694 6.075 0 0 0 -3.36 
477 33.5189 31.0435 0 0 0 0 -3.36 
478 33.5189 31.0435 4.05 0 0 0 -3.36 
479 33.5916 14.7176 2.025 0 0 0 -3.36 
480 33.5916 14.7176 6.075 0 0 0 -3.36 
481 33.7175 42.8495 0 0 0 0 -3.36 
482 33.7175 42.8495 4.05 0 0 0 -3.36 
483 33.7902 26.5236 2.025 0 0 0 -3.36 
484 33.7902 26.5236 6.075 0 0 0 -3.36 
485 33.8629 10.1977 0 0 0 0 -3.36 
486 33.8629 10.1977 4.05 0 0 0 -3.36 
487 33.9161 54.6555 0 0 0 0 -3.36 
488 33.9161 54.6555 4.05 0 0 0 -3.36 
489 33.9888 38.3296 2.025 0 0 0 -3.36 
490 33.9888 38.3296 6.075 0 0 0 -3.36 
491 34.0615 22.0037 0 0 0 0 -3.36 
492 34.0615 22.0037 4.05 0 0 0 -3.36 
493 34.1342 5.67779 2.025 0 0 0 -3.36016 
494 34.1342 5.67779 6.075 0 0 0 -3.36016 
495 34.1874 50.1356 2.025 0 0 0 -3.36 
496 34.1874 50.1356 6.075 0 0 0 -3.36 
497 34.2601 33.8097 0 0 0 0 -3.36 
498 34.2601 33.8097 4.05 0 0 0 -3.36 
499 34.3328 17.4838 2.025 0 0 0 -3.36 
500 34.3328 17.4838 6.075 0 0 0 -3.36 
501 34.4055 1.15789 0 0 0 0 -3.21067 
502 34.4055 1.15789 4.05 0 0 0 -3.21067 
503 34.4587 45.6157 0 0 0 0 -3.36 
504 34.4587 45.6157 4.05 0 0 0 -3.36 
505 34.5314 29.2898 2.025 0 0 0 -3.36 
506 34.5314 29.2898 6.075 0 0 0 -3.36 
507 34.6041 12.9639 0 0 0 0 -3.36 
508 34.6041 12.9639 4.05 0 0 0 -3.36 
509 34.6573 57.4217 0 0 0 0 -3.36 
510 34.6573 57.4217 4.05 0 0 0 -3.36 
511 34.73 41.0958 2.025 0 0 0 -3.36 
512 34.73 41.0958 6.075 0 0 0 -3.36 
513 34.8027 24.7699 0 0 0 0 -3.36 
514 34.8027 24.7699 4.05 0 0 0 -3.36 
515 34.8754 8.44399 2.025 0 0 0 -3.36 
516 34.8754 8.44399 6.075 0 0 0 -3.36 
517 34.9286 52.9018 2.025 0 0 0 -3.36 
518 34.9286 52.9018 6.075 0 0 0 -3.36 
519 35.0013 36.5759 0 0 0 0 -3.36 
520 35.0013 36.5759 4.05 0 0 0 -3.36 
521 35.074 20.25 2.025 0 0 0 -3.36 
522 35.074 20.25 6.075 0 0 0 -3.36 
523 35.1467 3.92409 0 0 0 0 -3.37931 
524 35.1467 3.92409 4.05 0 0 0 -3.37931 
525 35.1999 48.3819 0 0 0 0 -3.36 
526 35.1999 48.3819 4.05 0 0 0 -3.36 
527 35.2726 32.056 2.025 0 0 0 -3.36 
528 35.2726 32.056 6.075 0 0 0 -3.36 
529 35.3453 15.7301 0 0 0 0 -3.36 
530 35.3453 15.7301 4.05 0 0 0 -3.36 
531 35.3985 60.1879 0 0 0 0 -3.36 
532 35.3985 60.1879 4.05 0 0 0 -3.36 
533 35.4712 43.862 2.025 0 0 0 -3.36 
534 35.4712 43.862 6.075 0 0 0 -3.36 
535 35.5439 27.5361 0 0 0 0 -3.36 
536 35.5439 27.5361 4.05 0 0 0 -3.36 
537 35.6166 11.2102 2.025 0 0 0 -3.36 
538 35.6166 11.2102 6.075 0 0 0 -3.36 
539 35.6698 55.668 2.025 0 0 0 -3.36 
540 35.6698 55.668 6.075 0 0 0 -3.36 
541 35.7425 39.3421 0 0 0 0 -3.36 
542 35.7425 39.3421 4.05 0 0 0 -3.36 
543 35.8152 23.0162 2.025 0 0 0 -3.36 
544 35.8152 23.0162 6.075 0 0 0 -3.36 
545 35.8879 6.69029 0 0 0 0 -3.36 
546 35.8879 6.69029 4.05 0 0 0 -3.36 
547 35.9411 51.1481 0 0 0 0 -3.36 
548 35.9411 51.1481 4.05 0 0 0 -3.36 
549 36.0138 34.8222 2.025 0 0 0 -3.36 
550 36.0138 34.8222 6.075 0 0 0 -3.36 
551 36.0865 18.4963 0 0 0 0 -3.36 
552 36.0865 18.4963 4.05 0 0 0 -3.36 
553 36.1592 2.17039 2.025 0 0 0 -3.3624 
554 36.1592 2.17039 6.075 0 0 0 -3.3624 
555 36.2124 46.6282 2.025 0 0 0 -3.36 
556 36.2124 46.6282 6.075 0 0 0 -3.36 
557 36.2851 30.3023 0 0 0 0 -3.36 
558 36.2851 30.3023 4.05 0 0 0 -3.36 
559 36.3578 13.9764 2.025 0 0 0 -3.36 
560 36.3578 13.9764 6.075 0 0 0 -3.36 
561 36.411 58.4342 2.025 0 0 0 -3.36 
562 36.411 58.4342 6.075 0 0 0 -3.36 
563 36.4837 42.1083 0 0 0 0 -3.36 
564 36.4837 42.1083 4.05 0 0 0 -3.36 
565 36.5564 25.7824 2.025 0 0 0 -3.36 
566 36.5564 25.7824 6.075 0 0 0 -3.36 
567 36.6291 9.45649 0 0 0 0 -3.36 
568 36.6291 9.45649 4.05 0 0 0 -3.36 
569 36.6823 53.9143 0 0 0 0 -3.36 
570 36.6823 53.9143 4.05 0 0 0 -3.36 
571 36.755 37.5884 2.025 0 0 0 -3.36 
572 36.755 37.5884 6.075 0 0 0 -3.36 
573 36.8277 21.2625 0 0 0 0 -3.36 
574 36.8277 21.2625 4.05 0 0 0 -3.36 
575 36.9004 4.93659 2.025 0 0 0 -3.36791 
576 36.9004 4.93659 6.075 0 0 0 -3.36791 
577 36.9536 49.3944 2.025 0 0 0 -3.36 
578 36.9536 49.3944 6.075 0 0 0 -3.36 
579 37.0263 33.0685 0 0 0 0 -3.36 
580 37.0263 33.0685 4.05 0 0 0 -3.36 
581 37.099 16.7426 2.025 0 0 0 -3.36 
582 37.099 16.7426 6.075 0 0 0 -3.36 
583 37.1522 61.2004 2.025 0 0 0 -3.36 
584 37.1522 61.2004 6.075 0 0 0 -3.36 
585 37.1717 0.416687 0 0 0 0 -2.88425 
586 37.1717 0.416687 4.05 0 0 0 -2.88425 
587 37.2249 44.8745 0 0 0 0 -3.36 
588 37.2249 44.8745 4.05 0 0 0 -3.36 
589 37.2976 28.5486 2.025 0 0 0 -3.36 
590 37.2976 28.5486 6.075 0 0 0 -3.36 
591 37.3703 12.2227 0 0 0 0 -3.36 
592 37.3703 12.2227 4.05 0 0 0 -3.36 
593 37.4235 56.6805 0 0 0 0 -3.36 
594 37.4235 56.6805 4.05 0 0 0 -3.36 
595 37.4962 40.3546 2.025 0 0 0 -3.36 
596 37.4962 40.3546 6.075 0 0 0 -3.36 
597 37.5689 24.0287 0 0 0 0 -3.36 
598 37.5689 24.0287 4.05 0 0 0 -3.36 
599 37.6416 7.70279 2.025 0 0 0 -3.36 
600 37.6416 7.70279 6.075 0 0 0 -3.36 
601 37.6948 52.1606 2.025 0 0 0 -3.36 
602 37.6948 52.1606 6.075 0 0 0 -3.36 
603 37.7675 35.8347 0 0 0 0 -3.36 
604 37.7675 35.8347 4.05 0 0 0 -3.36 
605 37.8402 19.5088 2.025 0 0 0 -3.36 
606 37.8402 19.5088 6.075 0 0 0 -3.36 
607 37.8934 63.9666 2.025 0 0 0 -3.36 
608 37.8934 63.9666 6.075 0 0 0 -3.36 
609 37.9129 3.18289 0 0 0 0 -3.36753 
610 37.9129 3.18289 4.05 0 0 0 -3.36753 
611 37.9661 47.6407 0 0 0 0 -3.36 
612 37.9661 47.6407 4.05 0 0 0 -3.36 
613 38.0388 31.3148 2.025 0 0 0 -3.36 
614 38.0388 31.3148 6.075 0 0 0 -3.36 
615 38.1115 14.9889 0 0 0 0 -3.36 
616 38.1115 14.9889 4.05 0 0 0 -3.36 
617 38.1647 59.4467 0 0 0 0 -3.36 
618 38.1647 59.4467 4.05 0 0 0 -3.36 
619 38.2374 43.1208 2.025 0 0 0 -3.36 
620 38.2374 43.1208 6.075 0 0 0 -3.36 
621 38.3101 26.7949 0 0 0 0 -3.36 
622 38.3101 26.7949 4.05 0 0 0 -3.36 
623 38.3828 10.469 2.025 0 0 0 -3.36 
624 38.3828 10.469 6.075 0 0 0 -3.36 
625 38.436 54.9268 2.025 0 0 0 -3.36 
626 38.436 54.9268 6.075 0 0 0 -3.36 
627 38.5087 38.6009 0 0 0 0 -3.36 
628 38.5087 38.6009 4.05 0 0 0 -3.36 
629 38.5814 22.275 2.025 0 0 0 -3.36 
630 38.5814 22.275 6.075 0 0 0 -3.36 
631 38.6346 66.7328 2.025 0 0 0 -3.36 
632 38.6346 66.7328 6.075 0 0 0 -3.36 
633 38.6541 5.94909 0 0 0 0 -3.36016 
634 38.6541 5.94909 4.05 0 0 0 -3.36016 
635 38.7073 50.4069 0 0 0 0 -3.36 
636 38.7073 50.4069 4.05 0 0 0 -3.36 
637 38.78 34.081 2.025 0 0 0 -3.36 
638 38.78 34.081 6.075 0 0 0 -3.36 
639 38.8527 17.7551 0 0 0 0 -3.36 
640 38.8527 17.7551 4.05 0 0 0 -3.36 
641 38.9059 62.2129 0 0 0 0 -3.36 
642 38.9059 62.2129 4.05 0 0 0 -3.36 
643 38.9254 1.42919 2.025 0 0 0 -3.21401 
644 38.9254 1.42919 6.075 0 0 0 -3.21401 
645 38.9786 45.887 2.025 0 0 0 -3.36 
646 38.9786 45.887 6.075 0 0 0 -3.36 
647 39.0513 29.5611 0 0 0 0 -3.36 
648 39.0513 29.5611 4.05 0 0 0 -3.36 
649 39.124 13.2352 2.025 0 0 0 -3.36 
650 39.124 13.2352 6.075 0 0 0 -3.36 
651 39.1772 57.693 2.025 0 0 0 -3.36 
652 39.1772 57.693 6.075 0 0 0 -3.36 
653 39.2499 41.3671 0 0 0 0 -3.36 
654 39.2499 41.3671 4.05 0 0 0 -3.36 
655 39.3226 25.0412 2.025 0 0 0 -3.36 
656 39.3226 25.0412 6.075 0 0 0 -3.36 
657 39.3953 8.71529 0 0 0 0 -3.36 
658 39.3953 8.71529 4.05 0 0 0 -3.36 
659 39.4485 53.1731 0 0 0 0 -3.36 
660 39.4485 53.1731 4.05 0 0 0 -3.36 
661 39.5212 36.8472 2.025 0 0 0 -3.36 
662 39.5212 36.8472 6.075 0 0 0 -3.36 
663 39.5939 20.5213 0 0 0 0 -3.36 
664 39.5939 20.5213 4.05 0 0 0 -3.36 
665 39.6471 64.9791 0 0 0 0 -3.36 
666 39.6471 64.9791 4.05 0 0 0 -3.36 
667 39.6666 4.19539 2.025 0 0 0 -3.38912 
668 39.6666 4.19539 6.075 0 0 0 -3.38912 
669 39.7198 48.6532 2.025 0 0 0 -3.36 
670 39.7198 48.6532 6.075 0 0 0 -3.36 
671 39.7925 32.3273 0 0 0 0 -3.36 
672 39.7925 32.3273 4.05 0 0 0 -3.36 
673 39.8652 16.0014 2.025 0 0 0 -3.36 
674 39.8652 16.0014 6.075 0 0 0 -3.36 
675 39.9184 60.4592 2.025 0 0 0 -3.36 
676 39.9184 60.4592 6.075 0 0 0 -3.36 
677 39.9911 44.1333 0 0 0 0 -3.36 
678 39.9911 44.1333 4.05 0 0 0 -3.36 
679 40.0638 27.8074 2.025 0 0 0 -3.36 
680 40.0638 27.8074 6.075 0 0 0 -3.36 
681 40.1365 11.4815 0 0 0 0 -3.36 
682 40.1365 11.4815 4.05 0 0 0 -3.36 
683 40.1897 55.9393 0 0 0 0 -3.36 
684 40.1897 55.9393 4.05 0 0 0 -3.36 
685 40.2624 39.6134 2.025 0 0 0 -3.36 
686 40.2624 39.6134 6.075 0 0 0 -3.36 
687 40.3351 23.2875 0 0 0 0 -3.36 
688 40.3351 23.2875 4.05 0 0 0 -3.36 
689 40.3883 67.7453 0 0 0 0 -3.36 
690 40.3883 67.7453 4.05 0 0 0 -3.36 
691 40.4078 6.96159 2.025 0 0 0 -3.36 
692 40.4078 6.96159 6.075 0 0 0 -3.36 
693 40.461 51.4194 2.025 0 0 0 -3.36 
694 40.461 51.4194 6.075 0 0 0 -3.36 
695 40.5337 35.0935 0 0 0 0 -3.36 
696 40.5337 35.0935 4.05 0 0 0 -3.36 
697 40.6064 18.7676 2.025 0 0 0 -3.36 
698 40.6064 18.7676 6.075 0 0 0 -3.36 
699 40.6596 63.2254 2.025 0 0 0 -3.36 
700 40.6596 63.2254 6.075 0 0 0 -3.36 
701 40.6791 2.44169 0 0 0 0 -3.30897 
702 40.6791 2.44169 4.05 0 0 0 -3.30897 
703 40.7323 46.8995 0 0 0 0 -3.36 
704 40.7323 46.8995 4.05 0 0 0 -3.36 
705 40.805 30.5736 2.025 0 0 0 -3.36 
706 40.805 30.5736 6.075 0 0 0 -3.36 
707 40.8777 14.2477 0 0 0 0 -3.36 
708 40.8777 14.2477 4.05 0 0 0 -3.36 
709 40.9309 58.7055 0 0 0 0 -3.36 
710 40.9309 58.7055 4.05 0 0 0 -3.36 
711 41.0036 42.3796 2.025 0 0 0 -3.36 
712 41.0036 42.3796 6.075 0 0 0 -3.36 
713 41.0763 26.0537 0 0 0 0 -3.36 
714 41.0763 26.0537 4.05 0 0 0 -3.36 
715 41.1296 70.5115 0 0 0 0 -3.36 
716 41.1296 70.5115 4.05 0 0 0 -3.36 
717 41.149 9.72779 2.025 0 0 0 -3.36 
718 41.149 9.72779 6.075 0 0 0 -3.36 
719 41.2022 54.1856 2.025 0 0 0 -3.36 
720 41.2022 54.1856 6.075 0 0 0 -3.36 
721 41.2749 37.8597 0 0 0 0 -3.36 
722 41.2749 37.8597 4.05 0 0 0 -3.36 
723 41.3476 21.5338 2.025 0 0 0 -3.36 
724 41.3476 21.5338 6.075 0 0 0 -3.36 
725 41.4008 65.9916 2.025 0 0 0 -3.36 
726 41.4008 65.9916 6.075 0 0 0 -3.36 
727 41.4203 5.20789 0 0 0 0 -3.36791 
728 41.4203 5.20789 4.05 0 0 0 -3.36791 
729 41.4735 49.6657 0 0 0 0 -3.36 
730 41.4735 49.6657 4.05 0 0 0 -3.36 
731 41.5462 33.3398 2.025 0 0 0 -3.36 
732 41.5462 33.3398 6.075 0 0 0 -3.36 
733 41.6189 17.0139 0 0 0 0 -3.36 
734 41.6189 17.0139 4.05 0 0 0 -3.36 
735 41.6721 61.4717 0 0 0 0 -3.36 
736 41.6721 61.4717 4.05 0 0 0 -3.36 
737 41.6916 0.687986 2.025 0 0 0 -2.98124 
738 41.6916 0.687986 6.075 0 0 0 -2.98124 
739 41.7448 45.1458 2.025 0 0 0 -3.36 
740 41.7448 45.1458 6.075 0 0 0 -3.36 
741 41.8175 28.8199 0 0 0 0 -3.36 
742 41.8175 28.8199 4.05 0 0 0 -3.36 
743 41.8902 12.494 2.025 0 0 0 -3.36 
744 41.8902 12.494 6.075 0 0 0 -3.36 
745 41.9434 56.9518 2.025 0 0 0 -3.36 
746 41.9434 56.9518 6.075 0 0 0 -3.36 
747 42.0161 40.6259 0 0 0 0 -3.36 
748 42.0161 40.6259 4.05 0 0 0 -3.36 
749 42.0888 24.3 2.025 0 0 0 -3.36 
750 42.0888 24.3 6.075 0 0 0 -3.36 
751 42.1421 68.7578 2.025 0 0 0 -3.36 
752 42.1421 68.7578 6.075 0 0 0 -3.36 
753 42.1615 7.97409 0 0 0 0 -3.36 
754 42.1615 7.97409 4.05 0 0 0 -3.36 
755 42.2147 52.4319 0 0 0 0 -3.36 
756 42.2147 52.4319 4.05 0 0 0 -3.36 
757 42.2874 36.106 2.025 0 0 0 -3.36 
758 42.2874 36.106 6.075 0 0 0 -3.36 
759 42.3601 19.7801 0 0 0 0 -3.36 
760 42.3601 19.7801 4.05 0 0 0 -3.36 
761 42.4133 64.2379 0 0 0 0 -3.36 
762 42.4133 64.2379 4.05 0 0 0 -3.36 
763 42.4328 3.45419 2.025 0 0 0 -3.38787 
764 42.4328 3.45419 6.075 0 0 0 -3.38787 
765 42.486 47.912 2.025 0 0 0 -3.36 
766 42.486 47.912 6.075 0 0 0 -3.36 
767 42.5587 31.5861 0 0 0 0 -3.36 
768 42.5587 31.5861 4.05 0 0 0 -3.36 
769 42.6314 15.2602 2.025 0 0 0 -3.36 
770 42.6314 15.2602 6.075 0 0 0 -3.36 
771 42.6846 59.718 2.025 0 0 0 -3.36 
772 42.6846 59.718 6.075 0 0 0 -3.36 
773 42.7573 43.3921 0 0 0 0 -3.36 
774 42.7573 43.3921 4.05 0 0 0 -3.36 
775 42.83 27.0662 2.025 0 0 0 -3.36 
776 42.83 27.0662 6.075 0 0 0 -3.36 
777 42.8833 71.524 2.025 0 0 0 -3.36 
778 42.8833 71.524 6.075 0 0 0 -3.36 
779 42.9027 10.7403 0 0 0 0 -3.36 
780 42.9027 10.7403 4.05 0 0 0 -3.36 
781 42.9559 55.1981 0 0 0 0 -3.36 
782 42.9559 55.1981 4.05 0 0 0 -3.36 
783 43.0286 38.8722 2.025 0 0 0 -3.36 
784 43.0286 38.8722 6.075 0 0 0 -3.36 
785 43.1013 22.5463 0 0 0 0 -3.36 